TITLE ="                           triangle file"
VARIABLES ="X", "Y","
ZONE T="VOL_MIXED",N=    3579 E=    6878 ET=TRIANGLE F=FEPOINT
  -20.0000000000000       -25.0000000000000     
  -19.0000000000000       -25.0000000000000     
  -17.9999980000000       -25.0000000000000     
  -16.9999980000000       -25.0000000000000     
  -15.9999980000000       -25.0000000000000     
  -14.9999980000000       -25.0000000000000     
  -13.9999970000000       -25.0000000000000     
  -12.9999950000000       -25.0000000000000     
  -11.9999960000000       -25.0000000000000     
  -10.9999960000000       -25.0000000000000     
  -9.99999400000000       -25.0000000000000     
  -8.99999300000000       -25.0000000000000     
  -7.99999300000000       -25.0000000000000     
  -6.99999400000000       -25.0000000000000     
  -5.99999500000000       -25.0000000000000     
  -4.99999300000000       -25.0000000000000     
  -3.99999400000000       -25.0000000000000     
  -2.99999500000000       -25.0000000000000     
  -1.99999400000000       -25.0000000000000     
 -0.999994000000000       -25.0000000000000     
  5.000000000000000E-006  -25.0000000000000     
   1.00000400000000       -25.0000000000000     
   2.00000500000000       -25.0000000000000     
   3.00000500000000       -25.0000000000000     
   4.00000400000000       -25.0000000000000     
   5.00000500000000       -25.0000000000000     
   6.00000500000000       -25.0000000000000     
   7.00000400000000       -25.0000000000000     
   8.00000400000000       -25.0000000000000     
   9.00000500000000       -25.0000000000000     
   10.0000040000000       -25.0000000000000     
   11.0000030000000       -25.0000000000000     
   12.0000050000000       -25.0000000000000     
   13.0000040000000       -25.0000000000000     
   14.0000040000000       -25.0000000000000     
   15.0000020000000       -25.0000000000000     
   16.0000020000000       -25.0000000000000     
   17.0000040000000       -25.0000000000000     
   18.0000020000000       -25.0000000000000     
   19.0000040000000       -25.0000000000000     
   20.0000040000000       -25.0000000000000     
   21.0000040000000       -25.0000000000000     
   22.0000040000000       -25.0000000000000     
   23.0000060000000       -25.0000000000000     
   24.0000060000000       -25.0000000000000     
   25.0000060000000       -25.0000000000000     
   26.0000080000000       -25.0000000000000     
   27.0000080000000       -25.0000000000000     
   28.0000080000000       -25.0000000000000     
   29.0000080000000       -25.0000000000000     
   30.0000000000000       -25.0000000000000     
   30.0000000000000       -24.0000000000000     
   30.0000000000000       -22.9999980000000     
   30.0000000000000       -21.9999980000000     
   30.0000000000000       -20.9999980000000     
   30.0000000000000       -19.9999980000000     
   30.0000000000000       -18.9999960000000     
   30.0000000000000       -17.9999960000000     
   30.0000000000000       -16.9999960000000     
   30.0000000000000       -15.9999960000000     
   30.0000000000000       -14.9999940000000     
   30.0000000000000       -13.9999930000000     
   30.0000000000000       -12.9999930000000     
   30.0000000000000       -11.9999940000000     
   30.0000000000000       -10.9999940000000     
   30.0000000000000       -9.99999300000000     
   30.0000000000000       -8.99999400000000     
   30.0000000000000       -7.99999500000000     
   30.0000000000000       -6.99999400000000     
   30.0000000000000       -5.99999400000000     
   30.0000000000000       -4.99999500000000     
   30.0000000000000       -3.99999600000000     
   30.0000000000000       -2.99999500000000     
   30.0000000000000       -1.99999500000000     
   30.0000000000000      -0.999996000000000     
   30.0000000000000       5.000000000000000E-006
   30.0000000000000        1.00000500000000     
   30.0000000000000        2.00000400000000     
   30.0000000000000        3.00000400000000     
   30.0000000000000        4.00000500000000     
   30.0000000000000        5.00000400000000     
   30.0000000000000        6.00000300000000     
   30.0000000000000        7.00000400000000     
   30.0000000000000        8.00000400000000     
   30.0000000000000        9.00000400000000     
   30.0000000000000        10.0000020000000     
   30.0000000000000        11.0000020000000     
   30.0000000000000        12.0000040000000     
   30.0000000000000        13.0000030000000     
   30.0000000000000        14.0000040000000     
   30.0000000000000        15.0000040000000     
   30.0000000000000        16.0000040000000     
   30.0000000000000        17.0000040000000     
   30.0000000000000        18.0000060000000     
   30.0000000000000        19.0000060000000     
   30.0000000000000        20.0000060000000     
   30.0000000000000        21.0000080000000     
   30.0000000000000        22.0000080000000     
   30.0000000000000        23.0000080000000     
   30.0000000000000        24.0000080000000     
   30.0000000000000        25.0000000000000     
   29.0000000000000        25.0000000000000     
   27.9999980000000        25.0000000000000     
   26.9999980000000        25.0000000000000     
   25.9999980000000        25.0000000000000     
   24.9999980000000        25.0000000000000     
   23.9999960000000        25.0000000000000     
   22.9999960000000        25.0000000000000     
   21.9999960000000        25.0000000000000     
   20.9999960000000        25.0000000000000     
   19.9999940000000        25.0000000000000     
   18.9999920000000        25.0000000000000     
   17.9999940000000        25.0000000000000     
   16.9999940000000        25.0000000000000     
   15.9999950000000        25.0000000000000     
   14.9999930000000        25.0000000000000     
   13.9999940000000        25.0000000000000     
   12.9999950000000        25.0000000000000     
   11.9999940000000        25.0000000000000     
   10.9999940000000        25.0000000000000     
   9.99999500000000        25.0000000000000     
   8.99999600000000        25.0000000000000     
   7.99999500000000        25.0000000000000     
   6.99999500000000        25.0000000000000     
   5.99999600000000        25.0000000000000     
   4.99999500000000        25.0000000000000     
   3.99999500000000        25.0000000000000     
   2.99999600000000        25.0000000000000     
   1.99999600000000        25.0000000000000     
  0.999995000000000        25.0000000000000     
 -4.000000000000000E-006   25.0000000000000     
  -1.00000300000000        25.0000000000000     
  -2.00000400000000        25.0000000000000     
  -3.00000400000000        25.0000000000000     
  -4.00000300000000        25.0000000000000     
  -5.00000200000000        25.0000000000000     
  -6.00000200000000        25.0000000000000     
  -7.00000300000000        25.0000000000000     
  -8.00000300000000        25.0000000000000     
  -9.00000400000000        25.0000000000000     
  -10.0000040000000        25.0000000000000     
  -11.0000040000000        25.0000000000000     
  -12.0000050000000        25.0000000000000     
  -13.0000060000000        25.0000000000000     
  -14.0000060000000        25.0000000000000     
  -15.0000060000000        25.0000000000000     
  -16.0000080000000        25.0000000000000     
  -17.0000080000000        25.0000000000000     
  -18.0000080000000        25.0000000000000     
  -19.0000080000000        25.0000000000000     
  -20.0000000000000        25.0000000000000     
  -20.0000000000000        24.0000000000000     
  -20.0000000000000        22.9999980000000     
  -20.0000000000000        21.9999980000000     
  -20.0000000000000        20.9999980000000     
  -20.0000000000000        19.9999980000000     
  -20.0000000000000        18.9999960000000     
  -20.0000000000000        17.9999960000000     
  -20.0000000000000        16.9999960000000     
  -20.0000000000000        15.9999960000000     
  -20.0000000000000        14.9999940000000     
  -20.0000000000000        13.9999930000000     
  -20.0000000000000        12.9999930000000     
  -20.0000000000000        11.9999940000000     
  -20.0000000000000        10.9999940000000     
  -20.0000000000000        9.99999300000000     
  -20.0000000000000        8.99999400000000     
  -20.0000000000000        7.99999500000000     
  -20.0000000000000        6.99999400000000     
  -20.0000000000000        5.99999400000000     
  -20.0000000000000        4.99999500000000     
  -20.0000000000000        3.99999600000000     
  -20.0000000000000        2.99999500000000     
  -20.0000000000000        1.99999500000000     
  -20.0000000000000       0.999996000000000     
  -20.0000000000000      -5.000000000000000E-006
  -20.0000000000000       -1.00000500000000     
  -20.0000000000000       -2.00000400000000     
  -20.0000000000000       -3.00000400000000     
  -20.0000000000000       -4.00000500000000     
  -20.0000000000000       -5.00000400000000     
  -20.0000000000000       -6.00000300000000     
  -20.0000000000000       -7.00000400000000     
  -20.0000000000000       -8.00000400000000     
  -20.0000000000000       -9.00000400000000     
  -20.0000000000000       -10.0000020000000     
  -20.0000000000000       -11.0000020000000     
  -20.0000000000000       -12.0000040000000     
  -20.0000000000000       -13.0000030000000     
  -20.0000000000000       -14.0000040000000     
  -20.0000000000000       -15.0000040000000     
  -20.0000000000000       -16.0000040000000     
  -20.0000000000000       -17.0000040000000     
  -20.0000000000000       -18.0000060000000     
  -20.0000000000000       -19.0000060000000     
  -20.0000000000000       -20.0000060000000     
  -20.0000000000000       -21.0000080000000     
  -20.0000000000000       -22.0000080000000     
  -20.0000000000000       -23.0000080000000     
  -20.0000000000000       -24.0000080000000     
  0.000000000000000E+000  0.000000000000000E+000
  7.710000000000000E-004  4.909000000000000E-003
  3.083000000000000E-003  9.698000000000000E-003
  6.932000000000000E-003  1.435800000000000E-002
  1.231200000000000E-002  1.888300000000000E-002
  1.921500000000000E-002  2.326000000000000E-002
  2.763000000000000E-002  2.747500000000000E-002
  3.754500000000000E-002  3.151400000000000E-002
  4.894300000000000E-002  3.535800000000000E-002
  6.180900000000000E-002  3.899100000000000E-002
  7.611999999999999E-002  4.239200000000000E-002
  9.185699999999999E-002  4.554400000000000E-002
  0.108993000000000       4.842700000000000E-002
  0.127504000000000       5.102300000000000E-002
  0.147360000000000       5.331600000000000E-002
  0.168530000000000       5.529000000000000E-002
  0.190983000000000       5.693300000000000E-002
  0.214683000000000       5.823400000000000E-002
  0.239594000000000       5.918400000000000E-002
  0.265677000000000       5.977800000000000E-002
  0.292893000000000       6.001300000000000E-002
  0.321199000000000       5.988900000000000E-002
  0.350552000000000       5.940800000000000E-002
  0.380906000000000       5.857600000000000E-002
  0.412215000000000       5.740000000000000E-002
  0.444430000000000       5.588900000000000E-002
  0.477501000000000       5.405400000000000E-002
  0.511379000000000       5.190700000000000E-002
  0.546010000000000       4.945900000000000E-002
  0.581340000000000       4.672500000000000E-002
  0.617317000000000       4.371500000000000E-002
  0.653883000000000       4.044200000000000E-002
  0.690983000000000       3.691500000000000E-002
  0.728560000000000       3.314300000000000E-002
  0.766555000000000       2.913000000000000E-002
  0.804910000000000       2.488100000000000E-002
  0.843566000000000       2.039600000000000E-002
  0.882463000000000       1.567300000000000E-002
  0.921541000000000       1.070500000000000E-002
  0.960740000000000       5.485000000000000E-003
   1.00000000000000       0.000000000000000E+000
  0.960740000000000      -5.485000000000000E-003
  0.921541000000000      -1.070500000000000E-002
  0.882463000000000      -1.567300000000000E-002
  0.843566000000000      -2.039600000000000E-002
  0.804910000000000      -2.488100000000000E-002
  0.766555000000000      -2.913000000000000E-002
  0.728560000000000      -3.314300000000000E-002
  0.690983000000000      -3.691500000000000E-002
  0.653883000000000      -4.044200000000000E-002
  0.617317000000000      -4.371500000000000E-002
  0.581340000000000      -4.672500000000000E-002
  0.546010000000000      -4.945900000000000E-002
  0.511379000000000      -5.190700000000000E-002
  0.477501000000000      -5.405400000000000E-002
  0.444430000000000      -5.588900000000000E-002
  0.412215000000000      -5.740000000000000E-002
  0.380906000000000      -5.857600000000000E-002
  0.350552000000000      -5.940800000000000E-002
  0.321199000000000      -5.988900000000000E-002
  0.292893000000000      -6.001300000000000E-002
  0.265677000000000      -5.977800000000000E-002
  0.239594000000000      -5.918400000000000E-002
  0.214683000000000      -5.823400000000000E-002
  0.190983000000000      -5.693300000000000E-002
  0.168530000000000      -5.529000000000000E-002
  0.147360000000000      -5.331600000000000E-002
  0.127504000000000      -5.102300000000000E-002
  0.108993000000000      -4.842700000000000E-002
  9.185699999999999E-002 -4.554400000000000E-002
  7.611999999999999E-002 -4.239200000000000E-002
  6.180900000000000E-002 -3.899100000000000E-002
  4.894300000000000E-002 -3.535800000000000E-002
  3.754500000000000E-002 -3.151400000000000E-002
  2.763000000000000E-002 -2.747500000000000E-002
  1.921500000000000E-002 -2.326000000000000E-002
  1.231200000000000E-002 -1.888300000000000E-002
  6.932000000000000E-003 -1.435800000000000E-002
  3.083000000000000E-003 -9.698000000000000E-003
  7.710000000000000E-004 -4.909000000000000E-003
   14.8207148658419       -11.6470176844822     
   15.0621947634244        11.4367972065872     
  -9.28270590947850        12.2097278054085     
  -8.78526796052120       -12.1550280397413     
   2.95216387253107       -16.2640022888507     
   2.76293630978829        16.2258729039977     
   19.7050331435094       0.259881640487905     
  -9.57451902461606       -4.84570294125624     
   11.9709248103185       -3.71266725520284     
   6.55075664650175        8.99222983513479     
  -13.0888006938843        3.73522405321270     
  -1.64852690003101       -9.64948077427556     
   22.2742094229740        17.2554966785339     
   22.4300278499182       -17.3461631113860     
 -0.735003540467450        7.10836140377393     
   21.5896865914473        6.77329026140941     
   21.3162927978358       -6.45371404668848     
   4.58446574625254       -9.68343385591460     
   11.1889668989820        5.12504030287459     
   9.98973372420245       -17.8724730026346     
   9.38695825803099        17.6314313376046     
  -3.57812367545250        18.1005656512041     
  -3.29867923447225       -17.7443981993701     
  -14.5960465174479        18.7678357478116     
  -13.7279154398842       -18.5932908035928     
  -4.72183282536083        3.75576213962504     
   15.4033135082015        19.9355967911256     
   15.4505934246721       -19.9135311686102     
   7.91250958339333       0.473901440255693     
  -12.8923652402429       -8.36163528228687     
   24.9775360920600       -12.0133402778786     
   24.8055686022465        12.0210952700340     
  -13.6884043180041        8.64559024319974     
  -3.95865028570034       -4.68846185203935     
   4.54852280606449       -3.06010810558743     
  -14.2211789995098      -0.645398873805555     
  -4.23843301409237        12.2111466287541     
   10.2649394211220       -8.25132496592262     
   14.4067443055023       0.773491173774979     
  -9.13185021087001        20.7863324209156     
  -8.67714225414294       -20.5326438569965     
   5.26065085941275        3.35494598847569     
   15.6909772579291        4.29414888153996     
  -8.87378131590176       0.748181248060746     
  -9.05002113397029        6.51842096798261     
   24.0918283505439        2.57580564954158     
   26.3198721292434       -2.23246372749392     
   16.4755232261516       -7.08582039075674     
   20.8090081454330        13.2624723171453     
   20.7820393776202       -13.4362988002652     
  -16.4581794209865       -13.6277011578404     
   10.5390242274260        12.8849464235506     
   2.77186859755484        10.9089111104655     
  -16.8450988826891        13.7047596274582     
   8.30113962491091       -11.7202113205693     
   5.69565660215603       -19.7640504216603     
   5.92682386514003        19.5930796826549     
   13.2785874814742       -15.9384045782643     
   13.0176935016284        15.8177555623948     
  8.418982407347847E-002   20.6839818500694     
  0.228550971610167       -20.0025080514745     
 -0.594896117339457       -6.07211360104482     
  -4.64405484869168       -13.3676855289358     
  -7.84111089182438       -7.21054034894483     
  -15.0653154374111       -4.71242930077388     
   25.5038705213811        21.3763109526034     
   25.5626101265255       -21.3792602870898     
  -1.41457258484267       -13.1430727481745     
  -7.70144794520613        17.4324161274447     
  -5.87245007669963      -1.019618514401264E-002
   16.9821238906348       -2.48970280276501     
   25.8191433049123        8.89451551290138     
   26.0515894071819       -8.61402054321723     
   18.9608041212494        10.5274268520309     
  -9.94921173330109       -17.2963284184770     
  0.432790983401357        13.1846257649481     
  -4.81280514053569        8.56372381349982     
   5.40679056245671        13.3602757569140     
   12.6959294136226       -20.8103336547347     
   12.6213922170602        20.5465966622382     
   6.61208782448917       -6.96801341889371     
   19.6899487758047       -8.79691019567134     
   16.3142331392824       -16.5815792004828     
   16.7090138174421        16.6113928317695     
   25.9557576738408        15.0238257213188     
   26.0164486366765       -15.0235003196442     
   19.5553997727118       -20.2161251843498     
   19.2799763935667        20.2712601280561     
  -13.5864851273223        14.4605939694883     
   3.63069435492761        6.72471261592680     
  -6.24006294628781       -16.5623099015284     
   7.59571895922376       -4.77121005176549     
  -15.6138179311026        6.11508551211726     
   1.12166309657808        4.74545297704974     
  -5.81599697530393        21.1218751474783     
  -5.42178848623760       -20.9853461806263     
   12.5600063312391        9.68024212677678     
  -16.3221137566586        1.66216426087116     
   12.0187304209672       -13.1886961847506     
   16.5334768809286        8.55004778005443     
  -17.4691907152993        22.3265031941708     
  -17.4113047508091       -22.3090611781105     
   19.0297307501392        3.37495294654897     
   7.17640557118277       -15.3050548920541     
  -17.0294241034577       -10.9018661476793     
   26.9926994334435       -5.05360421694081     
   27.1202196213045        6.36441268297131     
   9.04377866069913       -22.2815978672374     
   8.64063948006740        22.2664656962067     
   7.52344841476548        6.00312503160489     
   2.16638491830889       -13.4424584066880     
  -11.6522123287720        22.0577955098638     
  -11.7477519111063       -21.5534849763007     
  -10.0620245362152        18.5248162910466     
  -12.1419868385305       -14.4503519984414     
   3.44643770770693       -7.54023480215377     
   11.1883957238936        2.45460448501208     
   21.8562876442781       -3.27838688480008     
   3.22758841663019       -21.4572352218014     
   3.22448522031995        21.5253160855769     
  -1.65523658193939        11.0046741198973     
   22.9361550545880        22.7892154821577     
   23.0253674799335       -22.7755688371912     
  -4.81187395615836       -10.0896090437582     
 -0.655034146177892       -16.2255812422129     
  -10.4981859090079        9.64554331964036     
 -0.919200401390290        16.7219181346147     
  -2.42004698939533        21.7605482679924     
  -2.78857663293029       -21.5284197495282     
  -16.5425370984391       -16.6451002921168     
   18.5789770734793       -5.16674230750679     
  -3.15283117165775       -1.48413063173329     
   27.0349363835631        1.00923327713159     
  -16.9555559969394        10.4229274776410     
  -11.1160507820199       -1.48216136314455     
  -6.30321686306555       -2.99403361991302     
   23.4309384693086        10.3535163064319     
   17.5321955100127        13.4348990182956     
   17.1508298358892       -13.8449612248378     
   6.39657538622131        17.3565012001008     
   3.58144568828892       3.879357045242638E-002
  -17.0283571034754        16.5845183019677     
  -12.3902767013933        11.0367409953331     
  -1.45977278038453        2.85920983679249     
   1.62731863979317       -11.1619931735296     
   14.6752096085187        6.12480320970389     
   1.66507190652744       -2.91663668893217     
   27.5956997428080        18.4854915072230     
   27.6331980432089       -18.4916004833361     
   10.2756950354056      -0.290823866360537     
   13.2512733089563       -6.74817087715061     
  -7.55286119451065        3.93269814962352     
  -12.6565976053373       -5.78376919862791     
  -10.0102726056553       -9.82483659628659     
   23.3444592847894       -9.23880600932057     
   8.63883075812845        8.22386992556384     
  -17.2425447839159       -7.63001412273737     
  -7.95164264199516        10.0510448076280     
  -17.3770141511598       -2.36963168006818     
   4.48924141718247       -12.9229776555334     
   19.3082938204569        6.31501640287428     
   19.0783563355444        18.6517774882050     
   19.4752997723714       -18.5795179626466     
  -13.7806634862649       -12.2120976192007     
   18.0383019610031        1.60662839443530     
  -12.8931190161743        7.45727763193413     
   15.4680497760993       -5.47298030606290     
   21.8125335271194       0.112428045216542     
  -12.9442107566102       0.654196125518379     
   9.39015224348031       -15.3680709171798     
   13.0183154792365        13.4320726420536     
  -1.75227424783759        14.0963806828767     
  -5.82574498319661        6.03681541531540     
  -5.17683719417304        15.2597053055917     
   8.75537611622957        3.01450119169697     
   24.3016116567366       -5.45531125419320     
   12.9259945659338       -9.13153151777106     
   6.92457106426294        12.0846463765086     
  -17.6569319954476        7.91325343713954     
   26.9302340029086        10.1516961928902     
   27.2557896141852       -9.83280295405347     
  -17.5349971282069        3.79653737880752     
   6.82293603572467       -2.55452577788710     
   7.41040189468632       -22.2262858428071     
   7.18297483933353        22.6193582950815     
   18.9760054080188       -3.75381839247427     
  -3.38414415381712       0.218201022350919     
   17.8084023338588       -11.7637368032771     
  -9.84573299943699        5.12095616112300     
   7.81328427901066        14.2708381195577     
   1.90745934375118        8.08992360388715     
  -8.41508708225639       -15.4714874155928     
  -10.7583506145872        14.8718488482857     
  -3.43690679473938       -8.18066455529300     
   14.4191864494640       -2.13774749346102     
  -12.5798051068006       -2.87431896695359     
   11.0105212568020        15.4757506972147     
  -3.75395570174572        5.70755254088082     
   22.7972180004678        14.7222784864271     
   22.8395768131974       -14.8020829218215     
   1.90519788013423       -8.02848730623425     
  -14.3490703382615        23.2629756217724     
  -14.3819806742397       -23.4475808948250     
  -17.6465276755933       -19.3583811568024     
   10.0564096274650       -11.1875106328409     
 -0.768673140394629       -3.42755653830875     
   1.14276328319098        22.0209814189151     
  0.944012469973223       -22.6154142061297     
   14.7012604932816       -14.3651257279356     
   10.0858448334587       -5.20391790986907     
  -6.39611549467431        13.5347528180032     
   25.3021174794825        18.7138916202318     
   25.3840192198119       -18.7309849102243     
  -6.29914469877180       -19.4784582029336     
  -13.7959336200881       -16.0167581592181     
   27.5995593726911        12.6893003523369     
   27.6735020104753       -12.6485863171093     
   8.30408352479814       -9.10132035047294     
   10.0307626529122       -2.72687646732865     
   14.8943163699054       -21.8264304939913     
   14.7082212449435        21.7372954135739     
  -17.7359898945300        19.3045761471941     
   28.6068885656907        3.39872040545133     
   17.1686632032018       -22.0436995329467     
   16.8996233958039        22.0212742441456     
   2.21515906345236        19.8097583878694     
   1.49823976291493       -19.2764608560947     
   18.6810542871162       -15.6951308497148     
   18.9533428912191        15.2329400345896     
  -2.96032865167656       -15.7745229197320     
  -7.67899176318294       -10.5678148591757     
   3.33741574455554        2.67981580858813     
   12.1696149186661       -18.1810517123686     
   12.2477919498941        17.6987184684248     
   14.0189451381629        4.34946833570977     
  -8.99406289850115       -1.45417966961405     
  -18.3705080277599      -0.154215262571927     
   21.2502638522301       -10.2483779654386     
   21.4987764599461        9.57549917038543     
   1.72380332702363       -5.40003945704302     
   21.4292151773053        3.87302837416235     
   24.0597236061332        4.89964359056120     
   28.4609478394709       -4.10733803901295     
   3.11985099375237        14.1751390668490     
   21.5372213754160       -20.5463337631731     
   21.3358607081871        20.5564837163252     
   5.58618767091573       -17.2432847620333     
   28.3924631763341       -7.46864483537003     
  -11.1102468271211       -6.54597345324745     
  -12.2026583794348        19.7915931281678     
  -14.6318082798709       -7.78423145528103     
   14.4945295620715        14.3393815120855     
  -6.62221894662757        22.2318607065831     
  -7.90173883520351       -22.2578254164728     
   14.5454134543657        8.16827128520945     
   28.0473673476834        7.74797550921408     
  -10.9460817735429        3.32454084350169     
   4.81093968264186       -6.07977372396541     
  -8.59050741311022        14.5220959833605     
   8.16045123406693       -19.8484482228827     
   8.14452254421519        19.3474899751194     
  -4.78681307640267        18.7701848782441     
  -10.9244289982368       -11.2468891026933     
   13.7475850113155        17.6219448916034     
   13.4403477255077       -17.9703766151367     
   5.51837669262859        1.26167574406375     
   10.7683921103469        10.1647905610615     
   16.7877705802270        7.04999325537906     
   1.13294433134885        10.3941853345939     
  -5.45139959509225       -6.47822012255054     
   23.7710614997690       -6.79912469662956     
  -9.32376154232205        23.6894442446735     
  -9.51097366685364       -23.6232165775857     
   3.65800405985001        9.52747916670617     
  -17.7379035761862       -11.7144289841023     
   10.6446116806247        7.89533034494114     
  -3.64999841050191       -11.6828505294154     
  -2.07065776138166        5.23168425057548     
  -17.6303012466608       -14.4184357564038     
  -6.00265715900006        10.4352211006910     
   23.9782072968386        6.84459577869261     
  -13.9274857284669        13.4336779401179     
   21.3668119918818        1.29718359764109     
   13.0307306419382       -11.2760550035611     
  -12.3800544487256       -18.6864058605918     
  -7.38607201328887       -13.5348794615024     
  0.845862068453196        15.1515365532759     
  -8.53283034398561       -17.4677356925912     
  -12.2355292416886        17.5637350189946     
  -2.51084767712874        8.76212416115783     
   15.7725064051645       -9.70774468687455     
   11.1453155656846       -23.0920398937112     
   10.9571052108286        22.9621684142093     
  -2.25588345147423        20.0218393808344     
  -2.30616476390979       -20.0916318165629     
   28.7476986984981       -1.27124683646173     
   1.02609733165804        1.82227019719109     
   28.4368727732906        23.4116330795887     
   28.4436085258518       -23.4119377767067     
   17.5045321741486        11.7747600580944     
   4.75398637695621       -23.1419386421091     
   5.00309187938658        23.4057243880743     
   21.4772484582259        11.3021947338339     
  -18.0556292372480       -6.10672540805609     
   10.3777230170511        19.4382504428646     
   9.78342409854823       -20.5050462684459     
  -11.0426355338157        12.8049164487375     
   28.1716077585607        16.5198676383360     
   28.2016830105388       -16.5226514577034     
   5.02224649516263        17.6473776580136     
   21.3523340461073       -23.6992978596345     
   21.2432498114236        23.7378913796901     
   23.0809655440282       -13.5575238291622     
   23.0917453998756        13.5536956301575     
   5.07335123459989        10.4623512172328     
   12.3919822533907       -2.22870295323651     
  -17.9079103439452        6.43986242984957     
   7.35611754827071       -10.3047830739996     
   24.0728901208906        1.37205708512694     
 -0.957893978563264       -18.3676020721465     
   5.29722007003763        5.38241332749848     
  -7.92129448985283       -4.92459285301020     
  -15.6081255462792        21.5921905373836     
  -15.3592503387648       -21.4276731571353     
  -3.91090677246198        22.7920277449836     
  -4.07080594110481       -22.2746310363216     
  -5.89258359391039        2.44790144652650     
   17.9553354769542        8.48080861538988     
  -18.3730243479348        2.35099299209398     